 Gaussian 09, Revision D.01,
 Gaussian 09:  EM64L-G09RevD.01 24-Apr-2013

 ----------------------
 # opt freq hf 6-31g(d)
 ----------------------

 -------------------
 Title Card Required
 -------------------
 Symbolic Z-matrix:
 Charge =  0 Multiplicity = 1

 SCF Done:  E(RHF) =  -528.601640628     A.U. after   15 cycles
 SCF Done:  E(RHF) =  -528.653493001     A.U. after   14 cycles
 SCF Done:  E(RHF) =  -528.669004315     A.U. after   14 cycles
 SCF Done:  E(RHF) =  -528.676518776     A.U. after   14 cycles
 SCF Done:  E(RHF) =  -528.675226068     A.U. after   13 cycles
 SCF Done:  E(RHF) =  -528.676333571     A.U. after   13 cycles
 SCF Done:  E(RHF) =  -528.677152825     A.U. after    9 cycles
 SCF Done:  E(RHF) =  -528.677726576     A.U. after   13 cycles
 SCF Done:  E(RHF) =  -528.677401779     A.U. after   15 cycles
 SCF Done:  E(RHF) =  -528.677928324     A.U. after   14 cycles
 SCF Done:  E(RHF) =  -528.678946328     A.U. after   15 cycles
 SCF Done:  E(RHF) =  -528.678956655     A.U. after   13 cycles
 SCF Done:  E(RHF) =  -528.678961723     A.U. after   13 cycles
 SCF Done:  E(RHF) =  -528.678972587     A.U. after   13 cycles
 SCF Done:  E(RHF) =  -528.678974206     A.U. after   12 cycles
 SCF Done:  E(RHF) =  -528.678974623     A.U. after   10 cycles
 SCF Done:  E(RHF) =  -528.678974854     A.U. after   10 cycles
 SCF Done:  E(RHF) =  -528.678974943     A.U. after   10 cycles
 SCF Done:  E(RHF) =  -528.678975002     A.U. after   10 cycles
 Optimization completed.
    -- Stationary point found.
 Normal termination of Gaussian 09 at Tue Jan 10 14:33:05 2017.

 -----------------------------------------------------------------
 #N Geom=AllCheck Guess=TCheck SCRF=Check GenChk RHF/6-31G(d) Freq
 -----------------------------------------------------------------

 Structure from the checkpoint file:  "glutamine.chk"
 -------------------
 Title Card Required
 -------------------
 Charge =  0 Multiplicity = 1

                         Standard orientation:
 ---------------------------------------------------------------------
 Center     Atomic      Atomic             Coordinates (Angstroms)
 Number     Number       Type             X           Y           Z
 ---------------------------------------------------------------------
      1          6           0       -2.672486   -0.196572    0.099984
      2          7           0       -3.677386    0.485813   -0.499854
      3          8           0       -2.801437   -1.328790    0.471018
      4          6           0       -1.384542    0.580121    0.321573
      5          1           0       -1.417903    1.530949   -0.199638
      6          1           0       -1.343611    0.795546    1.387232
      7          6           0       -0.159399   -0.235493   -0.100040
      8          1           0       -0.140754   -0.339567   -1.178950
      9          1           0       -0.241694   -1.228587    0.318137
     10          6           0        1.155276    0.392924    0.354376
     11          1           0        1.181228    0.402454    1.447992
     12          6           0        2.327479   -0.479916   -0.060378
     13          7           0        1.344010    1.720657   -0.215937
     14          8           0        2.258651   -1.574637   -0.509562
     15          8           0        3.495335    0.117702    0.178158
     16          1           0       -4.512001   -0.012909   -0.714120
     17          1           0       -3.530696    1.362185   -0.941966
     18          1           0        4.191790   -0.473009   -0.092499
     19          1           0        0.676626    2.361607    0.164667
     20          1           0        2.252286    2.075453    0.009670
 ---------------------------------------------------------------------

 SCF Done:  E(RHF) =  -528.678975002     A.U. after    1 cycles

 The electronic state is 1-A.
 Alpha  occ. eigenvalues --  -20.62120 -20.55836 -20.52107 -15.58481 -15.55572
 Alpha  occ. eigenvalues --  -11.38556 -11.34936 -11.27963 -11.24224 -11.22684
 Alpha  occ. eigenvalues --   -1.48275  -1.39016  -1.37366  -1.21478  -1.20947
 Alpha  occ. eigenvalues --   -1.06659  -0.98306  -0.89088  -0.80399  -0.78166
 Alpha  occ. eigenvalues --   -0.73259  -0.71495  -0.69824  -0.68878  -0.66672
 Alpha  occ. eigenvalues --   -0.64393  -0.62784  -0.60256  -0.59409  -0.58664
 Alpha  occ. eigenvalues --   -0.55544  -0.51788  -0.50519  -0.49792  -0.48471
 Alpha  occ. eigenvalues --   -0.45229  -0.41796  -0.41015  -0.40376
 Alpha virt. eigenvalues --    0.17824   0.20370   0.21473   0.22285   0.24932
 Alpha virt. eigenvalues --    0.26790   0.27545   0.29507   0.30374   0.31359
 Alpha virt. eigenvalues --    0.34509   0.36413   0.40490   0.41120   0.42565

 Mulliken charges:
               1
     1  C    0.756415
     2  N   -0.919412
     3  O   -0.597838
     4  C   -0.443643
     5  H    0.169420
     6  H    0.198100
     7  C   -0.305082
     8  H    0.193450
     9  H    0.228751
    10  C   -0.094767
    11  H    0.181531
    12  C    0.790615
    13  N   -0.854926
    14  O   -0.550581
    15  O   -0.718379
    16  H    0.394854
    17  H    0.387096
    18  H    0.469972
    19  H    0.346175
    20  H    0.368249
 Sum of Mulliken charges =   0.00000

 Dipole moment (field-independent basis, Debye):
    X=              0.3932    Y=              4.9820    Z=              0.1606  Tot=              5.0001
 Quadrupole moment (field-independent basis, Debye-Ang):
   XX=            -46.6690   YY=            -64.0176   ZZ=            -59.4563
   XY=             -8.2540   XZ=              8.9085   YZ=              1.1610

  Exact polarizability:  77.613  -0.290  68.248   2.780  -1.275  49.483
 Approx polarizability:  58.380   0.426  66.103   1.976  -1.521  50.567

                      1                      2                      3
                      A                      A                      A
 Frequencies --     16.6175                44.5247                80.0294
 Red. masses --      5.0742                 6.9858                 3.6483
 Frc consts  --      0.0008                 0.0082                 0.0138
 IR Inten    --     10.1947                 2.9542                 4.7651
 Raman Activ --      1.4290                 0.4252                 0.1744

                      4                      5                      6
                      A                      A                      A
 Frequencies --     95.0778               127.2721               243.3341
 Red. masses --      3.6849                 3.1604                 1.7694
 Frc consts  --      0.0196                 0.0302                 0.0617
 IR Inten    --      1.4637                 0.2839               200.2954
 Raman Activ --      0.2674                 0.1274                 1.1932

                      7                      8                      9
                      A                      A                      A
 Frequencies --    255.0879               269.6707               296.1699
 Red. masses --      2.4097                 3.8002                 1.2576
 Frc consts  --      0.0924                 0.1628                 0.0650
 IR Inten    --    104.9474                24.5683                30.5142
 Raman Activ --      0.9862                 0.5586                 1.2061

                     10                     11                     12
                      A                      A                      A
 Frequencies --    354.9593               421.4374               484.7542
 Red. masses --      3.1328                 2.8762                 2.5984
 Frc consts  --      0.2326                 0.3010                 0.3597
 IR Inten    --     15.6046                 4.1627                 6.7108
 Raman Activ --      2.1403                 1.7056                 0.2977

                     13                     14                     15
                      A                      A                      A
 Frequencies --    542.9490               584.5224               621.3914
 Red. masses --      2.6941                 1.9815                 1.5773
 Frc consts  --      0.4679                 0.3989                 0.3588
 IR Inten    --     10.1095                66.0616                61.7654
 Raman Activ --      0.9158                 2.9952                 2.4249

                     16                     17                     18
                      A                      A                      A
 Frequencies --    645.6706               679.8672               770.8897
 Red. masses --      1.6266                 2.4750                 2.4604
 Frc consts  --      0.3995                 0.6740                 0.8615
 IR Inten    --      5.0691                65.6851                24.8789
 Raman Activ --      2.4294                 2.0789                 1.5867

                     19                     20                     21
                      A                      A                      A
 Frequencies --    811.7312               852.6037               921.3904
 Red. masses --      3.0005                 1.7843                 2.4688
 Frc consts  --      1.1648                 0.7642                 1.2349
 IR Inten    --     83.5441                 6.1280                55.1534
 Raman Activ --      4.0374                 0.6764                 1.0762

                     22                     23                     24
                      A                      A                      A
 Frequencies --    978.7314              1007.6149              1025.7468
 Red. masses --      2.6724                 1.7220                 2.0602
 Frc consts  --      1.5083                 1.0301                 1.2772
 IR Inten    --     23.8813                52.8817                26.1178
 Raman Activ --      7.0348                 6.1274                 3.0228

                     25                     26                     27
                      A                      A                      A
 Frequencies --   1134.5392              1167.4348              1216.1259
 Red. masses --      2.8752                 1.9687                 1.9806
 Frc consts  --      2.1805                 1.5809                 1.7258
 IR Inten    --      7.6656                24.9895                 3.4490
 Raman Activ --      7.7406                 5.0909                 3.8866

                     28                     29                     30
                      A                      A                      A
 Frequencies --   1238.7090              1298.8434              1304.4571
 Red. masses --      2.6263                 1.5381                 1.7672
 Frc consts  --      2.3743                 1.5288                 1.7717
 IR Inten    --     20.7109               123.8698               231.7570
 Raman Activ --      4.0310                 2.7236                 4.5507

                     31                     32                     33
                      A                      A                      A
 Frequencies --   1374.5004              1392.5859              1433.0025
 Red. masses --      1.2694                 1.3942                 1.2893
 Frc consts  --      1.4130                 1.5930                 1.5600
 IR Inten    --     12.3886                15.3338                58.7621
 Raman Activ --      3.4322                 0.6541                11.3199

                     34                     35                     36
                      A                      A                      A
 Frequencies --   1449.6885              1481.7008              1519.4910
 Red. masses --      1.5136                 1.7850                 1.4700
 Frc consts  --      1.8742                 2.3089                 1.9997
 IR Inten    --      7.1928               128.7976                59.7594
 Raman Activ --      2.4845                 1.1863                 8.5444

                     37                     38                     39
                      A                      A                      A
 Frequencies --   1563.0105              1605.1173              1629.5667
 Red. masses --      1.9298                 1.8808                 1.1624
 Frc consts  --      2.7777                 2.8550                 1.8186
 IR Inten    --     23.6535                36.1079                12.4006
 Raman Activ --      0.8834                 3.8402                13.0051

                     40                     41                     42
                      A                      A                      A
 Frequencies --   1641.0684              1799.6534              1843.8512
 Red. masses --      1.1474                 1.2248                 1.0919
 Frc consts  --      1.8206                 2.3373                 2.1873
 IR Inten    --      9.8197               134.4100                59.0674
 Raman Activ --      0.8819                 3.3249                 6.0010

                     43                     44                     45
                      A                      A                      A
 Frequencies --   1975.6425              2044.2525              3127.3297
 Red. masses --      9.2342                10.5407                 1.0820
 Frc consts  --     21.2356                25.9530                 6.2347
 IR Inten    --    355.7375               370.5921                50.7662
 Raman Activ --      6.0681                 5.6172                79.9087

                     46                     47                     48
                      A                      A                      A
 Frequencies --   3203.5690              3245.3032              3254.4583
 Red. masses --      1.0643                 1.0834                 1.0831
 Frc consts  --      6.4353                 6.7228                 6.7589
 IR Inten    --     15.8901                19.2406                29.9293
 Raman Activ --     80.8364                51.0584                48.1200

                     49                     50                     51
                      A                      A                      A
 Frequencies --   3319.3454              3753.6656              3836.0481
 Red. masses --      1.1007                 1.0512                 1.0934
 Frc consts  --      7.1451                 8.7268                 9.4801
 IR Inten    --     11.3972                 4.6170                 4.7876
 Raman Activ --     27.6569                93.8451                61.6765

                     52                     53                     54
                      A                      A                      A
 Frequencies --   3838.8620              3970.7203              4053.4458
 Red. masses --      1.0476                 1.1048                 1.0652
 Frc consts  --      9.0963                10.2630                10.3120
 IR Inten    --     58.9808                51.3604               131.6982
 Raman Activ --     98.8483                47.0890               101.8070

 - Thermochemistry -
 -------------------
 Temperature   298.150 Kelvin.  Pressure   1.00000 Atm.
 Atom     1 has atomic number  6 and mass  12.00000

 Molecular mass:   146.06914 amu.
 Principal axes and moments of inertia in atomic units:
                           1         2         3
     Eigenvalues --   577.151623182.962963600.26924
           X            0.99996  -0.00413   0.00759
           Y            0.00409   0.99998   0.00474
           Z           -0.00761  -0.00471   0.99996
 This molecule is an asymmetric top.
 Rotational symmetry number  1.
 Warning -- assumption of classical behavior for rotation
           may cause significant error
 Rotational temperatures (Kelvin)      0.15007     0.02721     0.02406
 Rotational constants (GHZ):           3.12698     0.56700     0.50128
 Zero-point vibrational energy     465634.6 (Joules/Mol)
                                  111.28935 (Kcal/Mol)
 Warning -- explicit consideration of  14 degrees of freedom as
           vibrations may cause significant error
 Vibrational temperatures:     23.91    64.06   115.14   136.80   183.12
          (Kelvin)            350.10   367.01   388.00   426.12   510.71
                              606.35   697.45   781.18   841.00   894.04
                              928.97   978.18  1109.14  1167.90  1226.70
                             1325.67  1408.17  1449.73  1475.82  1632.35
                             1679.68  1749.73  1782.22  1868.74  1876.82
                             1977.60  2003.62  2061.77  2085.78  2131.83
                             2186.21  2248.82  2309.40  2344.58  2361.13
                             2589.30  2652.89  2842.51  2941.22  4499.52
                             4609.22  4669.26  4682.43  4775.79  5400.68
                             5519.21  5523.26  5712.97  5832.00

 Zero-point correction=                           0.177351 (Hartree/Particle)
 Thermal correction to Energy=                    0.188181
 Thermal correction to Enthalpy=                  0.189125
 Thermal correction to Gibbs Free Energy=         0.138590
 Sum of electronic and zero-point Energies=           -528.501624
 Sum of electronic and thermal Energies=              -528.490794
 Sum of electronic and thermal Enthalpies=            -528.489850
 Sum of electronic and thermal Free Energies=         -528.540385

                     E (Thermal)             CV                S
                      KCal/Mol        Cal/Mol-Kelvin    Cal/Mol-Kelvin
 Total                  118.085             37.463            106.359
 Electronic               0.000              0.000              0.000
 Translational            0.889              2.981             40.848
 Rotational               0.889              2.981             30.271
 Vibrational            116.308             31.501             35.241
 Vibration     1          0.593              1.986              7.002
 Vibration     2          0.595              1.980              5.047
 Vibration     3          0.600              1.963              3.890
 Vibration     4          0.603              1.953              3.553
 Vibration     5          0.611              1.926              2.987
 Vibration     6          0.659              1.774              1.778
 Vibration     7          0.665              1.754              1.695
 Vibration     8          0.674              1.729              1.598
 Vibration     9          0.690              1.681              1.438
 Vibration    10          0.731              1.565              1.144
 Vibration    11          0.784              1.424              0.887
 Vibration    12          0.841              1.284              0.697
 Vibration    13          0.898              1.155              0.559
 Vibration    14          0.941              1.065              0.477

 Normal termination of Gaussian 09 at Tue Jan 10 14:37:47 2017.
