 Gaussian 09, Revision D.01,
 Gaussian 09:  EM64L-G09RevD.01 24-Apr-2013

 -------------------------------------------
 # opt freq b3lyp/6-31g(d) geom=connectivity
 -------------------------------------------

 -------------------
 Title Card Required
 -------------------
 Symbolic Z-matrix:
 Charge =  0 Multiplicity = 1

 SCF Done:  E(RB3LYP) =  -608.095869070     A.U. after   15 cycles
 SCF Done:  E(RB3LYP) =  -608.121459217     A.U. after   12 cycles
 SCF Done:  E(RB3LYP) =  -608.149447841     A.U. after   14 cycles
 SCF Done:  E(RB3LYP) =  -608.155098440     A.U. after   14 cycles
 SCF Done:  E(RB3LYP) =  -608.162948884     A.U. after   13 cycles
 SCF Done:  E(RB3LYP) =  -608.165358354     A.U. after   12 cycles
 SCF Done:  E(RB3LYP) =  -608.167165922     A.U. after   12 cycles
 SCF Done:  E(RB3LYP) =  -608.167547703     A.U. after   11 cycles
 SCF Done:  E(RB3LYP) =  -608.167629818     A.U. after   13 cycles
 SCF Done:  E(RB3LYP) =  -608.168107647     A.U. after   12 cycles
 SCF Done:  E(RB3LYP) =  -608.177825322     A.U. after   11 cycles
 SCF Done:  E(RB3LYP) =  -608.177837610     A.U. after   10 cycles
 SCF Done:  E(RB3LYP) =  -608.177842816     A.U. after   10 cycles
 SCF Done:  E(RB3LYP) =  -608.177846718     A.U. after   10 cycles
 SCF Done:  E(RB3LYP) =  -608.177847745     A.U. after    8 cycles
 SCF Done:  E(RB3LYP) =  -608.177848062     A.U. after    7 cycles
 SCF Done:  E(RB3LYP) =  -608.177848208     A.U. after    8 cycles
 SCF Done:  E(RB3LYP) =  -608.177848306     A.U. after    8 cycles
 SCF Done:  E(RB3LYP) =  -608.177848338     A.U. after    7 cycles
 Optimization completed.
    -- Stationary point found.
 Normal termination of Gaussian 09 at Wed Jan 11 00:17:46 2017.

 --------------------------------------------------------------------
 #N Geom=AllCheck Guess=TCheck SCRF=Check GenChk RB3LYP/6-31G(d) Freq
 --------------------------------------------------------------------

 Structure from the checkpoint file:  "glutamine.chk"
 -------------------
 Title Card Required
 -------------------
 Charge =  0 Multiplicity = 1

                         Standard orientation:
 ---------------------------------------------------------------------
 Center     Atomic      Atomic             Coordinates (Angstroms)
 Number     Number       Type             X           Y           Z
 ---------------------------------------------------------------------
      1          6           0       -3.206179   -0.461177    0.026073
      2          7           0       -4.329351    0.076049   -0.544059
      3          6           0       -2.058075    0.522841    0.259358
      4          1           0       -2.200624    1.436304   -0.330836
      5          1           0       -2.106415    0.813752    1.319555
      6          6           0       -0.698927   -0.117843   -0.043944
      7          1           0       -0.607297   -0.297286   -1.121278
      8          1           0       -0.649274   -1.090109    0.451763
      9          6           0        0.480656    0.749677    0.408801
     10          1           0        0.434497    0.841629    1.513819
     11          6           0        1.805331    0.035749    0.149561
     12          7           0        0.478643    2.053918   -0.267788
     13          8           0        2.851125    0.867403    0.154344
     14          1           0       -5.087931   -0.553320   -0.768400
     15          1           0       -4.330192    0.991786   -0.966545
     16          1           0       -0.243503    2.642995    0.141294
     17          1           0        1.366317    2.521411   -0.096869
     18          8           0       -3.145743   -1.633226    0.366073
     19          8           0        1.907139   -1.174715    0.002467
     20          8           0        4.648320   -1.082100   -0.259678
     21          1           0        3.793847   -1.561195   -0.173800
     22          1           0        3.678324    0.320609    0.006110
     23          1           0        4.883642   -1.170714   -1.196623
 ---------------------------------------------------------------------

 SCF Done:  E(RB3LYP) =  -608.177848338     A.U. after    1 cycles

 The electronic state is 1-A.
 Alpha  occ. eigenvalues --  -19.18755 -19.16636 -19.14544 -19.10761 -14.35750
 Alpha  occ. eigenvalues --  -14.31960 -10.32392 -10.28706 -10.23158 -10.19765
 Alpha  occ. eigenvalues --  -10.18196  -1.10453  -1.02698  -1.02250  -1.01343
 Alpha  occ. eigenvalues --   -0.90191  -0.89425  -0.78245  -0.71832  -0.64893
 Alpha  occ. eigenvalues --   -0.58703  -0.56730  -0.54333  -0.53817  -0.50887
 Alpha  occ. eigenvalues --   -0.49678  -0.49245  -0.46706  -0.45150  -0.44510
 Alpha  occ. eigenvalues --   -0.41785  -0.40621  -0.40127  -0.39820  -0.38058
 Alpha  occ. eigenvalues --   -0.35942  -0.35126  -0.34194  -0.32153  -0.31794
 Alpha  occ. eigenvalues --   -0.27994  -0.26666  -0.24607  -0.24399
 Alpha virt. eigenvalues --    0.00294   0.03085   0.06251   0.06844   0.08895
 Alpha virt. eigenvalues --    0.11766   0.12742   0.14448   0.14876   0.15807
 Alpha virt. eigenvalues --    0.17452   0.18494   0.18605   0.20784   0.23065

 Mulliken charges:
               1
     1  C    0.596680
     2  N   -0.747382
     3  C   -0.377132
     4  H    0.137583
     5  H    0.164656
     6  C   -0.230142
     7  H    0.151934
     8  H    0.188013
     9  C   -0.072136
    10  H    0.146154
    11  C    0.617966
    12  N   -0.732522
    13  O   -0.609762
    14  H    0.340144
    15  H    0.332801
    16  H    0.299306
    17  H    0.323535
    18  O   -0.501541
    19  O   -0.506484
    20  O   -0.791896
    21  H    0.426520
    22  H    0.440236
    23  H    0.403468
 Sum of Mulliken charges =   0.00000

 Dipole moment (field-independent basis, Debye):
    X=             -0.9070    Y=              3.6898    Z=             -1.6754  Tot=              4.1526
 Quadrupole moment (field-independent basis, Debye-Ang):
   XX=            -53.9266   YY=            -67.9198   ZZ=            -62.4085
   XY=            -10.5675   XZ=             -0.5062   YZ=              5.4337

  Exact polarizability: 101.312  -2.407  81.491   1.618  -1.857  56.642
 Approx polarizability: 114.969  -2.981 132.303   3.005  -6.529  85.680

                      1                      2                      3
                      A                      A                      A
 Frequencies --     23.5805                35.4862                60.0706
 Red. masses --      5.2955                 7.2069                 4.0756
 Frc consts  --      0.0017                 0.0053                 0.0087
 IR Inten    --      8.6013                 0.7085                 3.2391

                      4                      5                      6
                      A                      A                      A
 Frequencies --     66.7330                80.8717               118.4490
 Red. masses --      5.3233                 3.5572                 2.8016
 Frc consts  --      0.0140                 0.0137                 0.0232
 IR Inten    --     10.4388                 2.5055                 0.5308

                      7                      8                      9
                      A                      A                      A
 Frequencies --    174.6946               202.7858               220.1709
 Red. masses --      5.2892                 6.5469                 1.2608
 Frc consts  --      0.0951                 0.1586                 0.0360
 IR Inten    --      2.5631                 2.2201               257.7294

                     10                     11                     12
                      A                      A                      A
 Frequencies --    249.1897               266.0442               290.5173
 Red. masses --      5.2435                 1.2067                 3.3825
 Frc consts  --      0.1918                 0.0503                 0.1682
 IR Inten    --      3.9928                87.6055                16.5870

                     13                     14                     15
                      A                      A                      A
 Frequencies --    331.5093               360.6704               398.4319
 Red. masses --      1.0804                 2.6770                 1.3999
 Frc consts  --      0.0700                 0.2052                 0.1309
 IR Inten    --     83.0369                 7.3907                94.8834

                     16                     17                     18
                      A                      A                      A
 Frequencies --    429.4186               456.5246               512.3809
 Red. masses --      2.6734                 2.6621                 2.8520
 Frc consts  --      0.2905                 0.3269                 0.4412
 IR Inten    --      3.4116                 8.6452                19.5844

                     19                     20                     21
                      A                      A                      A
 Frequencies --    541.9752               590.6618               630.0269
 Red. masses --      2.3848                 2.0796                 2.8991
 Frc consts  --      0.4127                 0.4275                 0.6780
 IR Inten    --     26.2946                 3.2812                14.2089

                     22                     23                     24
                      A                      A                      A
 Frequencies --    702.2283               736.5859               768.9483
 Red. masses --      2.3489                 2.0136                 1.3957
 Frc consts  --      0.6825                 0.6437                 0.4862
 IR Inten    --     16.4301                96.2724               278.4979

                     25                     26                     27
                      A                      A                      A
 Frequencies --    794.7662               856.4876               903.7683
 Red. masses --      1.7913                 3.1224                 2.9197
 Frc consts  --      0.6667                 1.3495                 1.4051
 IR Inten    --     47.0901                14.5310                 3.7141

                     28                     29                     30
                      A                      A                      A
 Frequencies --    915.9248               957.3192               996.5799
 Red. masses --      1.5601                 2.0742                 1.0992
 Frc consts  --      0.7711                 1.1200                 0.6432
 IR Inten    --     86.2527                37.5413               118.3642

                     31                     32                     33
                      A                      A                      A
 Frequencies --   1067.0410              1069.8325              1117.8262
 Red. masses --      3.1192                 1.9661                 2.0042
 Frc consts  --      2.0925                 1.3258                 1.4755
 IR Inten    --      7.7973                13.3236                 2.4105

                     34                     35                     36
                      A                      A                      A
 Frequencies --   1146.9293              1195.9928              1256.3097
 Red. masses --      2.5483                 1.2240                 1.6095
 Frc consts  --      1.9751                 1.0316                 1.4967
 IR Inten    --      6.8109                 1.7577               130.3490

                     37                     38                     39
                      A                      A                      A
 Frequencies --   1260.7060              1293.2578              1317.1157
 Red. masses --      1.3155                 2.0323                 1.3549
 Frc consts  --      1.2318                 2.0026                 1.3849
 IR Inten    --     46.5024               104.1045                70.9307

                     40                     41                     42
                      A                      A                      A
 Frequencies --   1353.3111              1384.3313              1416.9637
 Red. masses --      1.7128                 1.3410                 2.0234
 Frc consts  --      1.8482                 1.5141                 2.3935
 IR Inten    --     99.7976                49.1161                34.2676

                     43                     44                     45
                      A                      A                      A
 Frequencies --   1442.2302              1499.8100              1502.3870
 Red. masses --      1.7805                 1.4657                 1.1042
 Frc consts  --      2.1820                 1.9426                 1.4685
 IR Inten    --     25.1633                 3.7580                 5.3742

                     46                     47                     48
                      A                      A                      A
 Frequencies --   1516.8580              1645.7980              1692.4433
 Red. masses --      1.1132                 1.2373                 1.0917
 Frc consts  --      1.5091                 1.9747                 1.8423
 IR Inten    --      7.2942               108.9980                65.1066

                     49                     50                     51
                      A                      A                      A
 Frequencies --   1724.5655              1797.1840              1808.3761
 Red. masses --      1.1021                 5.8028                 8.6214
 Frc consts  --      1.9311                11.0427                16.6113
 IR Inten    --     93.7247               116.1237               361.5052

                     52                     53                     54
                      A                      A                      A
 Frequencies --   2908.4287              3026.5190              3073.3144
 Red. masses --      1.0795                 1.0634                 1.0810
 Frc consts  --      5.3800                 5.7388                 6.0157
 IR Inten    --     51.9613                14.2623                16.2747

                     55                     56                     57
                      A                      A                      A
 Frequencies --   3080.4826              3145.7814              3188.0280
 Red. masses --      1.0823                 1.0986                 1.0678
 Frc consts  --      6.0512                 6.4055                 6.3941
 IR Inten    --     25.3035                 8.3763               842.5444

                     58                     59                     60
                      A                      A                      A
 Frequencies --   3486.5289              3550.3408              3571.7589
 Red. masses --      1.0501                 1.0568                 1.0920
 Frc consts  --      7.5209                 7.8482                 8.2080
 IR Inten    --      3.4625               380.8483                 2.8974

                     61                     62                     63
                      A                      A                      A
 Frequencies --   3588.1995              3715.3543              3791.7361
 Red. masses --      1.0454                 1.1043                 1.0705
 Frc consts  --      7.9304                 8.9814                 9.0682
 IR Inten    --     29.5122                26.5486                68.2378

 - Thermochemistry -
 -------------------
 Temperature   298.150 Kelvin.  Pressure   1.00000 Atm.
 Atom     1 has atomic number  6 and mass  12.00000

 Molecular mass:   164.07971 amu.
 Principal axes and moments of inertia in atomic units:
                           1         2         3
     Eigenvalues --   753.862944677.227695284.72915
           X            0.99993  -0.01156   0.00017
           Y            0.01155   0.99979   0.01717
           Z           -0.00036  -0.01717   0.99985
 This molecule is an asymmetric top.
 Rotational symmetry number  1.
 Warning -- assumption of classical behavior for rotation
           may cause significant error
 Rotational temperatures (Kelvin)      0.11489     0.01852     0.01639
 Rotational constants (GHZ):           2.39399     0.38586     0.34150
 Zero-point vibrational energy     498295.7 (Joules/Mol)
                                  119.09554 (Kcal/Mol)
 Warning -- explicit consideration of  20 degrees of freedom as
           vibrations may cause significant error
 Vibrational temperatures:     33.93    51.06    86.43    96.01   116.36
          (Kelvin)            170.42   251.35   291.76   316.78   358.53
                              382.78   417.99   476.97   518.92   573.25
                              617.84   656.84   737.20   779.78   849.83
                              906.47  1010.35  1059.78  1106.34  1143.49
                             1232.29  1300.32  1317.81  1377.37  1433.85
                             1535.23  1539.25  1608.30  1650.17  1720.76
                             1807.55  1813.87  1860.71  1895.03  1947.11
                             1991.74  2038.69  2075.05  2157.89  2161.60
                             2182.42  2367.93  2435.05  2481.26  2585.74
                             2601.85  4184.57  4354.48  4421.81  4432.12
                             4526.07  4586.86  5016.33  5108.14  5138.96
                             5162.61  5345.56  5455.46

 Zero-point correction=                           0.189791 (Hartree/Particle)
 Thermal correction to Energy=                    0.203687
 Thermal correction to Enthalpy=                  0.204631
 Thermal correction to Gibbs Free Energy=         0.147376
 Sum of electronic and zero-point Energies=           -607.988058
 Sum of electronic and thermal Energies=              -607.974161
 Sum of electronic and thermal Enthalpies=            -607.973217
 Sum of electronic and thermal Free Energies=         -608.030472

                     E (Thermal)             CV                S
                      KCal/Mol        Cal/Mol-Kelvin    Cal/Mol-Kelvin
 Total                  127.816             48.339            120.503
 Electronic               0.000              0.000              0.000
 Translational            0.889              2.981             41.194
 Rotational               0.889              2.981             31.300
 Vibrational            126.038             42.377             48.009
 Vibration     1          0.593              1.985              6.307
 Vibration     2          0.594              1.982              5.496
 Vibration     3          0.597              1.973              4.455
 Vibration     4          0.598              1.970              4.247
 Vibration     5          0.600              1.962              3.870
 Vibration     6          0.609              1.934              3.126
 Vibration     7          0.627              1.874              2.384
 Vibration     8          0.639              1.836              2.108
 Vibration     9          0.647              1.810              1.958
 Vibration    10          0.662              1.764              1.736
 Vibration    11          0.672              1.735              1.622
 Vibration    12          0.686              1.691              1.471
 Vibration    13          0.714              1.613              1.253
 Vibration    14          0.735              1.553              1.119
 Vibration    15          0.765              1.473              0.968
 Vibration    16          0.791              1.406              0.861
 Vibration    17          0.815              1.346              0.776
 Vibration    18          0.867              1.223              0.628
 Vibration    19          0.897              1.157              0.561
 Vibration    20          0.948              1.052              0.466

 Normal termination of Gaussian 09 at Wed Jan 11 00:30:45 2017.
