 Gaussian 09, Revision D.01,
 Gaussian 09:  EM64L-G09RevD.01 24-Apr-2013

 -------------------------
 # opt freq b3lyp 6-31g(d)
 -------------------------

 -------------------
 Title Card Required
 -------------------
 Symbolic Z-matrix:
 Charge =  0 Multiplicity = 1

 SCF Done:  E(RB3LYP) =  -531.685318467     A.U. after   16 cycles
 SCF Done:  E(RB3LYP) =  -531.723725680     A.U. after   13 cycles
 SCF Done:  E(RB3LYP) =  -531.735329708     A.U. after   13 cycles
 SCF Done:  E(RB3LYP) =  -531.741006665     A.U. after   13 cycles
 SCF Done:  E(RB3LYP) =  -531.740071283     A.U. after   13 cycles
 SCF Done:  E(RB3LYP) =  -531.741243377     A.U. after   10 cycles
 SCF Done:  E(RB3LYP) =  -531.741698226     A.U. after   12 cycles
 SCF Done:  E(RB3LYP) =  -531.742498415     A.U. after   12 cycles
 SCF Done:  E(RB3LYP) =  -531.743114459     A.U. after   13 cycles
 SCF Done:  E(RB3LYP) =  -531.741390624     A.U. after   15 cycles
 SCF Done:  E(RB3LYP) =  -531.743941844     A.U. after   12 cycles
 SCF Done:  E(RB3LYP) =  -531.743974568     A.U. after   12 cycles
 SCF Done:  E(RB3LYP) =  -531.743991174     A.U. after   11 cycles
 SCF Done:  E(RB3LYP) =  -531.743998915     A.U. after   10 cycles
 SCF Done:  E(RB3LYP) =  -531.744006757     A.U. after   11 cycles
 SCF Done:  E(RB3LYP) =  -531.744010079     A.U. after    9 cycles
 SCF Done:  E(RB3LYP) =  -531.744011364     A.U. after   10 cycles
 SCF Done:  E(RB3LYP) =  -531.744011821     A.U. after    9 cycles
 SCF Done:  E(RB3LYP) =  -531.744011923     A.U. after    8 cycles
 Optimization completed.
    -- Stationary point found.
 Normal termination of Gaussian 09 at Tue Jan 10 15:10:17 2017.

 --------------------------------------------------------------------
 #N Geom=AllCheck Guess=TCheck SCRF=Check GenChk RB3LYP/6-31G(d) Freq
 --------------------------------------------------------------------

 Structure from the checkpoint file:  "glutamine.chk"
 -------------------
 Title Card Required
 -------------------
 Charge =  0 Multiplicity = 1

                         Standard orientation:
 ---------------------------------------------------------------------
 Center     Atomic      Atomic             Coordinates (Angstroms)
 Number     Number       Type             X           Y           Z
 ---------------------------------------------------------------------
      1          6           0       -2.681537   -0.206147    0.080486
      2          7           0       -3.734988    0.518785   -0.408870
      3          8           0       -2.782034   -1.389785    0.366047
      4          6           0       -1.389810    0.584053    0.301931
      5          1           0       -1.423258    1.544301   -0.227149
      6          1           0       -1.345242    0.810411    1.377855
      7          6           0       -0.157806   -0.229081   -0.112666
      8          1           0       -0.130651   -0.333509   -1.202988
      9          1           0       -0.244650   -1.234907    0.305743
     10          6           0        1.158080    0.402955    0.350576
     11          1           0        1.167783    0.410409    1.459887
     12          6           0        2.336620   -0.484778   -0.040291
     13          7           0        1.345253    1.742579   -0.227029
     14          8           0        2.274396   -1.635240   -0.405030
     15          8           0        3.521360    0.164720    0.115981
     16          1           0       -4.585738    0.018079   -0.626877
     17          1           0       -3.615611    1.442387   -0.795929
     18          1           0        4.214343   -0.472041   -0.141541
     19          1           0        0.703584    2.392593    0.222400
     20          1           0        2.284530    2.073157   -0.016313
 ---------------------------------------------------------------------

 SCF Done:  E(RB3LYP) =  -531.744011923     A.U. after    1 cycles

 The electronic state is 1-A.
 Alpha  occ. eigenvalues --  -19.20235 -19.14398 -19.10843 -14.35825 -14.32323
 Alpha  occ. eigenvalues --  -10.32309 -10.28796 -10.23450 -10.19921 -10.18335
 Alpha  occ. eigenvalues --   -1.10982  -1.02787  -1.01942  -0.90276  -0.89753
 Alpha  occ. eigenvalues --   -0.78421  -0.72188  -0.65358  -0.58940  -0.56821
 Alpha  occ. eigenvalues --   -0.53939  -0.51081  -0.49967  -0.48684  -0.47019
 Alpha  occ. eigenvalues --   -0.45243  -0.44903  -0.41962  -0.40822  -0.40056
 Alpha  occ. eigenvalues --   -0.38369  -0.36017  -0.35256  -0.34324  -0.32301
 Alpha  occ. eigenvalues --   -0.27946  -0.26747  -0.24710  -0.24652
 Alpha virt. eigenvalues --    0.00260   0.02950   0.06386   0.06974   0.09401
 Alpha virt. eigenvalues --    0.11833   0.12583   0.14645   0.15074   0.15776
 Alpha virt. eigenvalues --    0.18286   0.20395   0.21537   0.23064   0.24147

 Mulliken charges:
               1
     1  C    0.596177
     2  N   -0.746811
     3  O   -0.500269
     4  C   -0.377529
     5  H    0.136987
     6  H    0.164928
     7  C   -0.233621
     8  H    0.157748
     9  H    0.188281
    10  C   -0.072749
    11  H    0.144575
    12  C    0.604343
    13  N   -0.730843
    14  O   -0.455596
    15  O   -0.584042
    16  H    0.340701
    17  H    0.332905
    18  H    0.412758
    19  H    0.301165
    20  H    0.320891
 Sum of Mulliken charges =   0.00000

 Dipole moment (field-independent basis, Debye):
    X=              0.1383    Y=              4.6197    Z=              0.2702  Tot=              4.6297
 Quadrupole moment (field-independent basis, Debye-Ang):
   XX=            -43.8072   YY=            -62.9405   ZZ=            -58.8027
   XY=             -8.1255   XZ=              7.2684   YZ=              1.3975

  Exact polarizability:  91.089  -1.168  75.224   2.975  -1.103  50.800
 Approx polarizability: 105.461   0.349 124.637   4.325  -2.772  78.160

                      1                      2                      3
                      A                      A                      A
 Frequencies --     28.8052                37.2749                75.5985
 Red. masses --      6.8026                 5.8911                 3.8941
 Frc consts  --      0.0033                 0.0048                 0.0131
 IR Inten    --      5.7847                 3.6758                 5.4035

                      4                      5                      6
                      A                      A                      A
 Frequencies --     91.1841               122.3224               230.0927
 Red. masses --      3.7263                 2.8237                 2.0207
 Frc consts  --      0.0183                 0.0249                 0.0630
 IR Inten    --      0.5674                 0.1276               145.6443

                      7                      8                      9
                      A                      A                      A
 Frequencies --    240.0301               249.2233               273.4960
 Red. masses --      2.0757                 3.9965                 1.1890
 Frc consts  --      0.0705                 0.1463                 0.0524
 IR Inten    --    100.7930                25.5608                29.0353

                     10                     11                     12
                      A                      A                      A
 Frequencies --    328.5855               400.3614               452.2688
 Red. masses --      3.5090                 2.8216                 2.6514
 Frc consts  --      0.2232                 0.2665                 0.3195
 IR Inten    --     10.9351                 3.7498                 6.9616

                     13                     14                     15
                      A                      A                      A
 Frequencies --    501.1079               537.9871               576.9695
 Red. masses --      2.8090                 2.2140                 2.1670
 Frc consts  --      0.4156                 0.3775                 0.4250
 IR Inten    --      9.3366                52.0142                20.2104

                     16                     17                     18
                      A                      A                      A
 Frequencies --    605.4199               636.1937               703.1841
 Red. masses --      1.8294                 1.6162                 2.3322
 Frc consts  --      0.3951                 0.3854                 0.6794
 IR Inten    --     11.1178                57.4407                19.1068

                     19                     20                     21
                      A                      A                      A
 Frequencies --    737.5039               789.5490               842.3458
 Red. masses --      2.8043                 1.6846                 2.6995
 Frc consts  --      0.8987                 0.6187                 1.1285
 IR Inten    --     74.3946                 3.6057                30.8158

                     22                     23                     24
                      A                      A                      A
 Frequencies --    899.1208               914.4404               955.6129
 Red. masses --      2.8573                 1.6964                 1.9804
 Frc consts  --      1.3610                 0.8358                 1.0656
 IR Inten    --      8.3756                70.0324                28.0193

                     25                     26                     27
                      A                      A                      A
 Frequencies --   1064.4472              1069.3273              1117.3740
 Red. masses --      3.0003                 2.0085                 1.9872
 Frc consts  --      2.0029                 1.3532                 1.4618
 IR Inten    --     18.8526                10.4258                 3.1110

                     28                     29                     30
                      A                      A                      A
 Frequencies --   1142.6070              1166.6178              1196.4818
 Red. masses --      2.5451                 2.6224                 1.2234
 Frc consts  --      1.9577                 2.1029                 1.0319
 IR Inten    --     36.0908               274.7781                 6.7253

                     31                     32                     33
                      A                      A                      A
 Frequencies --   1264.0126              1278.1645              1317.9340
 Red. masses --      1.2409                 1.3338                 1.3925
 Frc consts  --      1.1681                 1.2839                 1.4250
 IR Inten    --      5.6674                 6.1631                68.8332

                     34                     35                     36
                      A                      A                      A
 Frequencies --   1334.1602              1356.8492              1390.1260
 Red. masses --      1.5164                 1.6819                 1.4378
 Frc consts  --      1.5903                 1.8244                 1.6371
 IR Inten    --      6.6844                77.3482                44.3366

                     37                     38                     39
                      A                      A                      A
 Frequencies --   1421.5279              1449.9758              1503.0865
 Red. masses --      2.0438                 1.9588                 1.0954
 Frc consts  --      2.4333                 2.4264                 1.4581
 IR Inten    --     36.7523                17.2765                 3.7738

                     40                     41                     42
                      A                      A                      A
 Frequencies --   1517.0222              1646.0965              1695.6083
 Red. masses --      1.1066                 1.2365                 1.0897
 Frc consts  --      1.5004                 1.9741                 1.8458
 IR Inten    --      8.6646               108.0626                50.3406

                     43                     44                     45
                      A                      A                      A
 Frequencies --   1807.7662              1856.2319              2912.4921
 Red. masses --      8.8744                10.2957                 1.0796
 Frc consts  --     17.0873                20.9011                 5.3959
 IR Inten    --    238.9497               250.0455                53.4144

                     46                     47                     48
                      A                      A                      A
 Frequencies --   3026.7917              3075.3728              3082.7004
 Red. masses --      1.0634                 1.0900                 1.0721
 Frc consts  --      5.7398                 6.0742                 6.0029
 IR Inten    --     13.9407                19.3435                20.2617

                     49                     50                     51
                      A                      A                      A
 Frequencies --   3142.9888              3485.1108              3570.1708
 Red. masses --      1.1003                 1.0502                 1.0920
 Frc consts  --      6.4038                 7.5151                 8.2010
 IR Inten    --      8.9005                 2.2244                 0.9765

                     52                     53                     54
                      A                      A                      A
 Frequencies --   3588.1055              3687.9284              3715.0590
 Red. masses --      1.0455                 1.0641                 1.1042
 Frc consts  --      7.9308                 8.5274                 8.9792
 IR Inten    --     30.6718                52.3720                26.6781

 - Thermochemistry -
 -------------------
 Temperature   298.150 Kelvin.  Pressure   1.00000 Atm.
 Atom     1 has atomic number  6 and mass  12.00000

 Molecular mass:   146.06914 amu.
 Principal axes and moments of inertia in atomic units:
                           1         2         3
     Eigenvalues --   589.167713206.335893669.84612
           X            0.99997  -0.00473   0.00632
           Y            0.00469   0.99997   0.00605
           Z           -0.00635  -0.00602   0.99996
 This molecule is an asymmetric top.
 Rotational symmetry number  1.
 Warning -- assumption of classical behavior for rotation
           may cause significant error
 Rotational temperatures (Kelvin)      0.14701     0.02701     0.02360
 Rotational constants (GHZ):           3.06320     0.56287     0.49178
 Zero-point vibrational energy     431318.5 (Joules/Mol)
                                  103.08758 (Kcal/Mol)
 Warning -- explicit consideration of  16 degrees of freedom as
           vibrations may cause significant error
 Vibrational temperatures:     41.44    53.63   108.77   131.19   175.99
          (Kelvin)            331.05   345.35   358.58   393.50   472.76
                              576.03   650.71   720.98   774.04   830.13
                              871.06   915.34  1011.72  1061.10  1135.98
                             1211.95  1293.63  1315.67  1374.91  1531.50
                             1538.52  1607.65  1643.95  1678.50  1721.47
                             1818.63  1838.99  1896.21  1919.56  1952.20
                             2000.08  2045.26  2086.19  2162.60  2182.65
                             2368.36  2439.60  2600.97  2670.70  4190.42
                             4354.87  4424.77  4435.31  4522.05  5014.29
                             5136.67  5162.48  5306.10  5345.13

 Zero-point correction=                           0.164281 (Hartree/Particle)
 Thermal correction to Energy=                    0.175624
 Thermal correction to Enthalpy=                  0.176568
 Thermal correction to Gibbs Free Energy=         0.125427
 Sum of electronic and zero-point Energies=           -531.579731
 Sum of electronic and thermal Energies=              -531.568388
 Sum of electronic and thermal Enthalpies=            -531.567444
 Sum of electronic and thermal Free Energies=         -531.618585

                     E (Thermal)             CV                S
                      KCal/Mol        Cal/Mol-Kelvin    Cal/Mol-Kelvin
 Total                  110.206             39.852            107.636
 Electronic               0.000              0.000              0.000
 Translational            0.889              2.981             40.848
 Rotational               0.889              2.981             30.317
 Vibrational            108.428             33.891             36.471
 Vibration     1          0.593              1.984              5.910
 Vibration     2          0.594              1.982              5.399
 Vibration     3          0.599              1.965              4.002
 Vibration     4          0.602              1.955              3.635
 Vibration     5          0.610              1.930              3.063
 Vibration     6          0.652              1.795              1.878
 Vibration     7          0.657              1.779              1.803
 Vibration     8          0.662              1.764              1.736
 Vibration     9          0.676              1.722              1.574
 Vibration    10          0.712              1.618              1.267
 Vibration    11          0.766              1.469              0.961
 Vibration    12          0.811              1.356              0.789
 Vibration    13          0.856              1.248              0.655
 Vibration    14          0.893              1.166              0.570
 Vibration    15          0.933              1.081              0.491
 Vibration    16          0.964              1.020              0.440

 Optimization completed.
    -- Stationary point found.
 Normal termination of Gaussian 09 at Tue Jan 10 15:21:02 2017.
